# ODT 1.0
# Table Start
# tle: mmArchive Data Table, Sun Apr 16 15:57:47 MST 2017
# Col: {total E} {Energy calc count} {Max dm/dt} :dE/dt {evolve:Delta E} Energy {Spin Ang} {Spin Ang} {Spin Ang} Energy eman::rgy  eman::B       eman::Bx      eman::By      eman::Bz      P:Energy    Iteration :Stage iteration Stage Oxs_TimeDriver::mx   O:my   :mz   Last time step} :Simulation time}
# Uni:                       J                                            {}                                        deg/ns                                 J/s                                  J                                   J                                    deg                                          deg                                            deg                                       J                           J                 mT                   mT                   mT                   mT                             J                         J                       {}                            {}                          {}                   {}                   {}                   {}                          s                                 s                
                      -2.6974117135795658e-017                          625                                         0.099162945091984825                 -6.15988867249791e-018                -1.1968450898151429e-031                 1.6265192804086252e-023                   0.12403197623157138                          0.13072851132461311                            0.13072851132461311                      3.3415129460507384e-023         -2.7999961167773496e-017  20000.000114115795   0                    0                    20000.000114115795         5.0310914588440145e-024         1.0257893205641139e-018    94                            94                          0                    -6.0903663065151444e-021 -6.0903663065151444e-021  0.99999860742898528        1.8446121570607883e-014              2.4062231023966565e-012       
                      -2.5574119120121966e-017                          992                                         0.097541308588691547                 -4.7373891738570147e-018                -7.4990897209577996e-032                 1.6837178330635026e-023                   0.12621943109157846                          0.12636730958351441                            0.13072851132461311                      3.4995148197628278e-023         -2.6599961468889424e-017  19000.000108410011   0                    0                    19000.000108410011         5.2494043042351368e-024         1.0257852670366265e-018    150                           55                          1                    -8.1204884086868587e-021  2.0301221021717146e-020  0.99999854575622638        1.4942546034881659e-014              3.8270022431070662e-012       
                      -2.4174121194171248e-017                          1359                                        0.090720265810938255                 -4.0309826171704575e-018                -1.8811520731802326e-031                 1.7447083671340764e-023                   0.12850759814156301                          0.128662418604713                              0.13072851132461311                      3.6695884017349118e-023         -2.5199961827621087e-017  18000.00010270422    0                    0                    18000.00010270422          5.4836712855749692e-024         1.0257810068108658e-018    209                           58                          2                    -1.2180732613030289e-020 -8.1204884086868587e-021  0.99999847951727783        4.0225530258512564e-014              5.3109302771414458e-012       
                      -2.277412336416502e-017                          1750                                        0.087503137271806655                 -3.8487180278041074e-018                -2.2279398337914593e-031                 1.8095349673600026e-023                   0.13089361193525845                          0.13105575525227503                            0.13105575525227503                      3.8519592818551877e-023         -2.3799962261278987e-017  17000.000096998428   0                    0                    17000.000096998428         5.7341850881228375e-024         1.0257765479863879e-018    269                           59                          3                    -5.2783174656464584e-020 -8.1204884086868587e-021  0.99999840863367229        4.9137395835928356e-014              6.8467968731760014e-012       
                      -2.1374125636914166e-017                          2153                                        0.096010865315183172                 -4.6286230719113966e-018                -8.0624242296910661e-032                 1.8785236386929916e-023                   0.13338400475923995                          0.13355385654560156                            0.13355385654560156                      4.0478026125232986e-023         -2.2399962779625003e-017  16000.000091292637   0                    0                    16000.000091292637         6.0024423274061386e-024         1.0257718770059949e-018    332                           62                          4                    -2.0301221021717147e-021  1.0150610510858573e-021  0.99999833267033567        1.6398198660733222e-014              8.4020748384178853e-012       
                      -1.9974128019891757e-017                          2550                                        0.095231818721766268                 -4.6214736977028212e-018                -1.0997059982451117e-031                 1.9520891611843818e-023                   0.13598669680167172                          0.13616451719595404                            0.13616451719595404                      4.2585195502345207e-023         -2.0999963393017357e-017  15000.000085586849   0                    0                    15000.000085586849         6.2902560364891543e-024         1.0257669767824497e-018    394                           61                          5                     2.6391587328232292e-020 -2.8421709430404006e-020  0.9999982511045703         2.2197267976772602e-014              1.0008970678923551e-011       
                      -1.8574130521314943e-017                          2977                                        0.094751675017306969                 -4.6825104084403281e-018                -1.3878732661740518e-031                 2.0306511420121957e-023                   0.13870965168585411                          0.13889546395231292                            0.13889546395231292                      4.4856080941448479e-023         -1.959996411410828e-017  14000.000079881058   0                    0                    14000.000079881058         6.5995425747618756e-024         1.0257618306584021e-018    460                           65                          6                    -4.0602442043434292e-020 -4.0602442043434293e-021  0.99999816338137748        2.724189685908604e-014              1.1670522258077982e-011       
                      -1.7174133150240996e-017                          3410                                        0.095821378808598409                 -4.9694378583706585e-018                -2.6810750385193186e-031                 2.114695676440282e-023                   0.14156182902266279                          0.14175671684616759                            0.14175671684616759                      4.730780340596799e-023         -1.8199964957191963e-017  13000.000074175266   0                    0                    13000.000074175266         6.9324945652063443e-024         1.0257564196962288e-018    527                           66                          7                    -7.3084395678181727e-020 -3.0451831532575722e-021  0.99999806886520792        4.7111545907649632e-014              1.3385556186841349e-011       
                      -1.5774135916678235e-017                          3855                                        0.087415708027702543                 -4.55471732191162e-018                -2.4245652440512436e-031                 2.2047914127696846e-023                   0.14455364902879592                          0.14475853645324516                            0.14475853645324516                      4.9960416435943562e-023         -1.6799965938287354e-017  12000.000068469479   0                    0                    12000.000068469479         7.2916757662921294e-024         1.0257507216027902e-018    597                           69                          8                    -2.8421709430404006e-020  1.3195793664116146e-020  0.99999796681132569        4.7333607248850444e-014              1.5192484684468893e-011       
                      -1.437413883171408e-017                          4294                                        0.099886896693557187                 -6.2056286502668778e-018                -3.1361361731915652e-031                 2.301502450837723e-023                   0.14769478190385882                          0.14791080878634297                            0.14791080878634297                      5.2834447822521502e-023         -1.5399967077355464e-017  11000.000062763687   0                    0                    11000.000062763687         7.6796960194846786e-024         1.0257447164730331e-018    666                           68                          9                    -4.0602442043434293e-021  2.3346404174974717e-020  0.99999785646016115        4.5452684809195683e-014              1.7020626054984216e-011       
                      -1.297414190766823e-017                          4781                                        0.098139116191283599                 -6.933637680349498e-018                -9.774094467765222e-032                 2.4056006530804733e-023                   0.15099908301525203                          0.15122594146287097                            0.15122594146287097                      5.5957136638287006e-023         -1.3999968395050438e-017  10000.000057057898   0                    0                    10000.000057057898         8.1000224252793584e-024         1.0257383742166143e-018    740                           73                          10                   -8.1204884086868587e-021 -4.6692808349949435e-020  0.99999773679782533        1.3698188006625558e-014              1.892688397489155e-011       
                      -1.1574145158268674e-017                          5274                                        0.099376221545823318                 -8.1277497862899716e-018                -2.0273421930213762e-031                 2.5178693986423723e-023                   0.15447967783754107                          0.15471891583615849                            0.15471891583615849                      5.9356799070930748e-023         -1.2599969917220932e-017  9000.0000513521099   0                    0                    9000.0000513521099         8.5562454351147129e-024         1.0257316672137653e-018    817                           76                          11                   -3.8572319941262578e-020  3.4512075736919149e-020  0.99999760677207505        2.3989937633439472e-014              2.092153743275505e-011       
                      -1.0174148598864893e-017                          5809                                        0.095294962710601172                 -8.6262239450018197e-018                -4.1160132177093335e-031                 2.6392780303663877e-023                   0.15815319573223191                          0.1584038452851004                             0.1584038452851004                       6.3068249317053295e-023         -1.1199971672832811e-017  8000.0000456463194   0                    0                    8000.0000456463194         9.052760171083326e-024         1.0257245601781253e-018    900                           82                          12                    2.6391587328232292e-020  7.917476198469687e-020  0.99999746508286824        4.5193195914219145e-014              2.3086134993087529e-011       
                      -8.7741522466807041e-018                          6404                                        0.098585254181013368                 -8.9397203777007957e-018                -2.0235505184433639e-031                 2.7708905906810278e-023                   0.16203737579892349                          0.16229842645629283                            0.16229842645629283                      6.7130040267694823e-023         -9.7999736967029537e-018  7000.0000399405317   0                    0                    7000.0000399405317         9.5944103665837755e-024         1.0257170166657076e-018    993                           92                          13                    1.8271098919545432e-020  3.1466892583661578e-020  0.99999731028432237        2.2221363839724255e-014              2.5536059277158351e-011       
                      -7.374156121122887e-018                          7095                                        0.099080315264198693                 -1.0106228406738454e-017                -1.6979780798757779e-031                 2.9138585253668484e-023                   0.16614870142561231                          0.16642200224256401                            0.16642200224256401                      7.1583984509028044e-023         -8.3999760305874292e-018  6000.0000342347394   0                    0                    6000.0000342347394         1.0186424340322807e-023         1.0257090004704393e-018    1100                          106                         14                   -2.0301221021717146e-020  3.4512075736919149e-020  0.9999971407927295         1.6617992695554139e-014              2.8365863779879789e-011       
                      -5.9741602441680768e-018                          7930                                        0.099455226268136396                 -1.146569627991762e-017                -5.7255790760755848e-031                 3.0695987310172396e-023                   0.17050923764846276                          0.17079715603410789                            0.17079715603410789                      7.6480868852229557e-023         -6.9999787224708565e-018  5000.0000285289489   0                    0                    5000.0000285289489         1.0835114881170977e-023         1.0257004663317363e-018    1228                          127                         15                   -6.0903663065151441e-020  4.4662686247777721e-020  0.99999695464720673        4.8673001550602027e-014              3.176022154031417e-011       
                      -4.5741646408658976e-018                          8975                                        0.097808845990355817                 -1.2142259825403103e-017                -2.2746135422874687e-031                 3.2398670220263246e-023                   0.17514675574862421                          0.17544938804816862                            0.17544938804816862                      8.1882737145780871e-023         -5.5999818284370656e-018  4000.0000228231602   0                    0                    4000.0000228231602         1.1548170159233679e-023         1.0256913579936425e-018    1389                          160                         16                    6.4963907269494869e-020  2.7406648379318149e-020  0.99999674937227578        1.856458988093472e-014              3.608017970645735e-011       
                      -3.17416934005309e-018                          10332                                       0.09878074215761605                 -1.4338453309537172e-017                -5.6392733404427318e-031                 3.4267696254445434e-023                   0.180093579423628                            0.18040925052791831                            0.18040925052791831                      8.7862199190887139e-023         -4.199985415743816e-018  3000.0000171173715   0                    0                    3000.0000171173715         1.2334639056050731e-023         1.0256816111562247e-018    1599                          209                         17                   -1.4210854715202003e-020  5.0753052554292865e-021  0.9999965218522805         3.881974376881325e-014              4.1717509508551166e-011       
                      -1.774174375594378e-018                          12211                                       0.099629656007422449                 -1.8016336585129687e-017                -4.39591252857233e-031                 3.6329427191429717e-023                   0.18538989458554889                          0.18571271418190688                            0.18571271418190688                      9.4503010800181431e-023         -2.7999895656226195e-018  2000.0000114115805   0                    0                    2000.0000114115805         1.3205268858490873e-023         1.0256711523213917e-018    1890                          290                         18                    2.233134312388886e-020 -8.3235006189040298e-020  0.99999626773088046        2.4259394035812642e-014              4.9628882164961781e-011       
                      -3.7417978948544833e-019                          15446                                       0.099753359099441372                 -1.9314434208587332e-017                -5.4512092906388564e-031                 3.8622426203430307e-023                   0.19109704857487103                          0.19140549547767532                            0.19140549547767532                      1.0190523487611743e-022         -1.3999943779072653e-018  1000.0000057057898   0                    0                    1000.0000057057898         1.4176346632904272e-023         1.0256598844141045e-018    2386                          495                         19                    2.6391587328232292e-020  2.233134312388886e-020  0.99999597851370825        2.8091932744408353e-014              6.302608261733319e-011       
                      -2.3418035379073305e-019                          15981                                       0.099608207378146199                 -1.0330731576667227e-017                -1.2388864101734318e-031                 3.8861926184780464e-023                   0.1916820233760769                           0.19172181397152185                            0.19172181397152185                      1.0268987667722431e-022         -1.2599949022442077e-018  900.00000513521093   0                    0                    900.00000513521093         1.4279554385716388e-023         1.025658717096227e-018    2469                          82                          20                    2.8421709430404006e-020  7.3084395678181727e-020  0.99999594845630246        1.1951692762590399e-014              6.5207679045499223e-011       
                      -9.4180922499215641e-020                          17134                                       0.099627599344116927                 -1.5139516511435257e-017                -5.5163563759127478e-031                 3.9109545581544138e-023                   0.19228722016733041                          0.19231547076569375                            0.19231547076569375                      1.0348725719511434e-022         -1.1199954327225124e-018  800.00000456463181   0                    0                    800.00000456463181         1.4385032157356519e-023         1.0256575283883626e-018    2649                          179                         21                    4.8722930452121155e-020  7.3084395678181727e-020  0.99999591636790486        3.622350019225409e-014              7.0060988392949581e-011       
                       4.5818504240460275e-020                          18395                                       0.099882479093624313                 -1.7116519400429716e-017                -5.0588323913944065e-031                 3.936022584229144e-023                   0.1928961039550067                           0.19292342721613406                            0.19292342721613406                      1.0429172334660694e-022         -9.7999597145464022e-019  700.00000399405292   0                    0                    700.00000399405292         1.4491679145014039e-023         1.0256563320667666e-018    2846                          196                         22                    6.9024151473838298e-020 -1.4210854715202003e-020  0.99999588353366242        2.942750618490092e-014              7.5370485591343131e-011       
                       1.8581792632899037e-019                          19770                                       0.099642409056078921                 -1.7679563308482991e-017                -7.4260699092060697e-031                 3.9614254592191948e-023                   0.1935107272553902                           0.19353692874889386                            0.19353692874889386                      1.0510537397977707e-022         -8.3999651873237901e-019  600.00000342347391   0                    0                    600.00000342347391         1.4600084860921645e-023         1.0256551253479366e-018    3058                          211                         23                    9.338561669989887e-020  3.2481953634747435e-020  0.99999584992801815        4.1762874968014767e-014              8.1095940295874807e-011       
                       3.258173436510369e-019                          21283                                       0.098720104409415893                 -1.7793136812767611e-017                -3.2251333206900609e-031                 3.9871878608109135e-023                   0.19413166096957979                          0.1941561924895718                             0.1941561924895718                       1.0592834302222822e-022         -6.9999707479561567e-019  500.00000285289497   0                    0                    500.00000285289497         1.4710400487522223e-023         1.0256539078245347e-018    3293                          234                         24                    5.2783174656464584e-020  1.1774708192595945e-019  0.99999581543082749        1.8080595576554713e-014              8.7377103417394007e-011       
                       4.6581675607325028e-019                          22916                                       0.099382444882048948                 -1.845999134525559e-017                -8.2571143060516566e-031                 4.0133262279302746e-023                   0.19475925774676497                          0.19478192198524641                            0.19478192198524641                      1.0676077098255736e-022         -5.59997639954033e-019  400.0000022823159    0                    0                    400.0000022823159          1.4822865988641555e-023         1.0256526791280327e-018    3545                          251                         25                    5.8873540962979727e-020  1.1368683772161602e-019  0.99999577992643618        4.4494614861435507e-014              9.4192707476238981e-011       
                       6.0581616342955044e-019                          24747                                       0.099905734118237319                 -1.8701832382612099e-017                -6.4917399628680934e-031                 4.0399004743573014e-023                   0.19539468440100891                          0.19541445878338964                            0.19541445878338964                      1.0760279028184003e-022         -4.1999821449486004e-019  300.0000017117369    0                    0                    300.0000017117369          1.493794171081713e-023         1.0256514381876743e-018    3827                          281                         26                   -1.6240976817373717e-020  6.6994029371666584e-020  0.99999574309152006        3.4581025357632945e-014              1.0185531569520742e-010       
                       7.4581556552474676e-019                          26824                                       0.099863052185574841                 -1.8876224931534454e-017                -3.1784690161488581e-031                 4.0669354137709914e-023                   0.19603833458193748                          0.19605481312509063                            0.19605481312509063                      1.0845454566616431e-022         -2.7999879891435628e-019  200.00000114115795   0                    0                    200.00000114115795         1.5056125044906615e-023         1.0256501844142543e-018    4146                          318                         27                   -1.6240976817373717e-019 -2.0910257652368661e-019  0.99999570470264942        1.6810486253629709e-014              1.104579817677625e-010       
                       8.8581496211432788e-019                          29201                                       0.099301030223759815                 -1.878806890947917e-017                -4.0589349736153259e-031                 4.094493916180439e-023                   0.19669136987078292                          0.19670353429785892                            0.19670353429785892                      1.0931617483673528e-022         -1.3999939380201956e-019  100.00000057057898   0                    0                    100.00000057057898         1.5178248852261762e-023         1.0256489165534964e-018    4511                          364                         28                    1.7459050078676745e-019 -1.4616879135636345e-019  0.99999566430866016        2.1566596698735671e-014              1.2029856626713193e-010       
                       1.0258143528914136e-018                          31860                                       0.099620357134600684                 -1.9089760123978504e-017                -4.5818813772452999e-031                 4.1226288458658928e-023                   0.19735477770741652                          0.19736166477993941                            0.19736166477993941                      1.1018782187807373e-022         -1.59160876815796e-034  1.1368683837028923e-013  0                    0                    1.1368683837028923e-013        1.5305385627335187e-023         1.0256476333954499e-018    4921                          409                         29                    9.5415738802070584e-020  8.7295250393383727e-020  0.99999562141418508        2.3955679217326605e-014              1.3149668106301405e-010       
                       1.1658137374433503e-018                          34969                                       0.099477343930075041                 -1.9123846826419102e-017                -3.8217296175741948e-031                 4.151467368522299e-023                   0.19803086359921276                          0.19803086359921276                            0.19803086359921276                      1.1106961754333592e-022          1.3999938129713475e-019  100.00000057057898   0                    0                   -100.00000057057898         1.5439546802139311e-023         1.0256463323081848e-018    5400                          478                         30                   -1.1977720402813116e-019 -5.6843418860808012e-020  0.9999955749880548         1.9957323974665107e-014              1.4461379691353305e-010       
                       1.3058131152132371e-018                          38678                                       0.099545094539212745                 -1.9184748010299498e-017                -2.3497022406270351e-031                 4.1811337225566215e-023                   0.19872182642574898                          0.19872182642574898                            0.19872182642574898                      1.119616980273219e-022          2.7999874824838095e-019  200.00000114115795   0                    0                   -200.00000114115795         1.5583544618917077e-023         1.0256450103849846e-018    5970                          569                         31                    3.1263880373444407e-019  7.5114517780353441e-020  0.99999552375273892        1.2238618843920924e-014              1.6011614792251787e-010       
                       1.4458124854059799e-018                          43155                                       0.099658953947993401                 -1.9209520103842552e-017                -3.7199261644201008e-031                 4.2118517044024984e-023                   0.19943162595754876                          0.19943162595754876                            0.19943162595754876                      1.1286418252977712e-022          4.1999809786692013e-019  300.00000171173707   0                    0                   -300.00000171173707         1.5742409055191305e-023         1.0256436624304308e-018    6659                          688                         32                    6.2933785167323155e-020  1.8271098919545432e-020  0.99999546540594997        1.9352798751125714e-014              1.7887680595357269e-010       
                       1.5858118468356986e-018                          48682                                       0.099845401170658266                 -1.9241964664091526e-017                -2.9986353075916999e-031                 4.2439541949158686e-023                   0.20016600225670286                          0.20016600225670286                            0.20016600225670286                      1.1377717445948999e-022          5.599974250213251e-019  400.0000022823159    0                    0                   -400.0000022823159          1.5924861663308384e-023         1.0256422802363016e-018    7510                          850                         33                   -6.0903663065151441e-020  1.6240976817373717e-020  0.99999539611803123        1.5574283622073719e-014              2.0217302687760297e-010       